# Time	field	min	max
0.00192308	T	293	293
0.00384615	T	293	1299.92
0.00414201	T	293	1550.43
0.00426975	T	293	2021.35
0.00433048	T	293	2446.47
0.00437016	T	293	2857.15
0.00440614	T	293	3040.12
0.00444682	T	292.949	3067.91
0.00449559	T	292.858	3082.32
0.00455408	T	292.884	3044.64
0.00462421	T	292.956	2993.5
0.00470824	T	292.982	3003.41
0.00480889	T	292.977	3043.28
0.0049294	T	292.968	3055.13
0.00507203	T	292.971	2988.92
0.00523843	T	292.973	2965
0.00542809	T	292.976	3039.08
0.00564238	T	292.978	2988.99
0.00588086	T	292.98	3059.69
0.00614505	T	292.982	3043.95
0.00642799	T	292.983	3084.85
0.00674145	T	292.983	3079.44
0.00707421	T	292.985	3134.22
0.00740957	T	292.986	3180.37
0.00776156	T	292.986	3251.61
0.00812568	T	292.987	3286.13
0.00850985	T	292.987	3309.21
0.00891267	T	292.987	3352.22
0.00932769	T	292.988	3384.43
0.00976503	T	292.988	3403.54
0.0102275	T	292.988	3429.2
0.0107247	T	292.989	3436.3
0.0112627	T	292.989	3438.24
0.0118586	T	292.991	3438.35
0.0124839	T	292.992	3474.66
0.0131421	T	292.994	3503.45
0.0138648	T	292.995	3515.23
0.0146678	T	292.997	3512.71
0.0155511	T	292.998	3501.41
0.0165353	T	292.999	3475.09
0.0176149	T	293	3446.05
0.0187715	T	293	3419.57
0.0200206	T	293	3382.07
0.0213833	T	293	3332.27
0.0228141	T	293	3284.13
0.0243245	T	293	3226.74
0.0259292	T	293	3163.93
0.0275339	T	293	3120.17
0.0292621	T	293	3048.11
0.0309902	T	293	2998.55
0.0328912	T	293	2915.31
0.0347922	T	293	2857.04
0.0366932	T	293	2807.14
0.0385941	T	293	2750.83
0.0404951	T	293	2704.24
0.0423961	T	293	2651.74
0.0442971	T	293	2615.84
0.0457228	T	293	2637.88
0.0471485	T	293	2624.65
0.0485743	T	293	2588.22
0.05	T	293	2566.41
0.0515625	T	293	2506
0.053125	T	293	2478.77
0.0546875	T	293	2435.82
0.0563657	T	293	2401.81
0.0578704	T	293	2381.85
0.0594907	T	293	2356.18
0.0609375	T	293	2342.91
0.0625	T	293	2319.34
0.0639423	T	293	2304.41
0.06551	T	293	2278.72
0.0670096	T	293	2259.44
0.0685806	T	293	2238.5
0.0700767	T	293	2222.85
0.0716516	T	293	2203.24
0.0731437	T	293	2192.82
0.0747234	T	293	2173.27
0.0762103	T	293	2166.42
0.0777963	T	293	2146.4
0.0792765	T	293	2143.25
0.0808706	T	293	2122.33
0.0823421	T	293	2122.78
0.0839474	T	293	2100.44
0.0854067	T	293	2104.94
0.0870282	T	293	2080.06
0.0884695	T	293	2089.33
0.0899108	T	293	2085.23
0.0913521	T	293	2078.82
0.0927934	T	293	2071.96
0.0942348	T	293	2065.67
0.0956761	T	293	2059.08
0.0971174	T	293	2052.65
0.0985587	T	293	2046.87
0.1	T	293	2041.43
0.101562	T	293	2021.57
0.103177	T	293	2007.58
0.104849	T	293	1994.22
0.106522	T	293	1986.28
0.108132	T	293	1987.09
0.109742	T	293	1983.58
0.111353	T	293	1979.8
0.112963	T	293	1975.63
0.114573	T	293	1972.8
0.116183	T	293	1969.75
0.117794	T	293	1966.74
0.119404	T	293	1964.14
0.121014	T	293	1961.47
0.122625	T	293	1959.19
0.124235	T	293	1957.03
0.125845	T	293	1955
0.127456	T	293	1953.44
0.129066	T	293	1952.08
0.130676	T	293	1950.86
0.132287	T	293	1949.7
0.133897	T	293	1948.05
0.135507	T	293	1947.18
0.137118	T	293	1947.28
0.138728	T	293	1946.66
0.140338	T	293	1946
0.141948	T	293	1944.99
0.143559	T	293	1943.73
0.145169	T	293	1943.11
0.146779	T	293	1942.49
0.14839	T	293	1941.49
0.15	T	293	1940.61
0.151613	T	293	1939.73
0.153281	T	293	1932.44
0.15495	T	293	1931.24
0.156618	T	293	1930.29
0.158287	T	293	1929.85
0.159956	T	293	1929.18
0.161624	T	293	1928.95
0.163293	T	293	1928.53
0.164889	T	293	1936.52
0.166484	T	293	1938.34
0.16816	T	293	1931.67
0.169836	T	293	1930.59
0.171512	T	293	1930.01
0.173188	T	293	1930.49
0.174765	T	293	1941.64
0.176342	T	293	1944.16
0.177919	T	293	1945.35
0.179496	T	293	1946.32
0.181074	T	293	1947.57
0.182651	T	293	1947.84
0.184228	T	293	1948.38
0.185805	T	293	1949
0.187382	T	293	1949.37
0.18896	T	293	1950.16
0.190537	T	293	1950.79
0.192114	T	293	1951.1
0.193691	T	293	1951.37
0.195268	T	293	1951.79
0.196846	T	293	1952.13
0.198423	T	293	1952.45
0.2	T	293	1952.83
0.201613	T	293	1949
0.203226	T	293	1948.39
0.204839	T	293	1948.23
0.206452	T	293	1948.26
0.208065	T	293	1948.46
0.209677	T	293	1948.77
0.21129	T	293	1949.12
0.212903	T	293	1949.34
0.214516	T	293	1949.62
0.216129	T	293	1949.9
0.217742	T	293	1950.19
0.219355	T	293	1950.48
0.220968	T	293	1950.82
0.222581	T	293	1951.16
0.224194	T	293	1951.64
0.225806	T	293	1951.9
0.227419	T	293	1952.03
0.229032	T	293	1952.03
0.230645	T	293	1952.04
0.232258	T	293	1951.99
0.233871	T	293	1951.94
0.235484	T	293	1951.93
0.237097	T	293	1951.9
0.23871	T	293	1951.9
0.240323	T	293	1951.93
0.241935	T	293	1951.95
0.243548	T	293	1951.98
0.245161	T	293	1952.01
0.246774	T	293	1952.05
0.248387	T	293	1952.08
0.25	T	293	1952.09
0.251613	T	293	1952.09
0.253226	T	293	1952.09
0.254839	T	293	1952.06
0.256452	T	293	1952.04
0.258065	T	293	1952.02
0.259677	T	293	1952.01
0.26129	T	293	1952
0.262903	T	293	1952
0.264516	T	293	1951.99
0.266129	T	293	1951.98
0.267742	T	293	1951.97
0.269355	T	293	1951.95
0.270968	T	293	1951.94
0.272581	T	293	1951.92
0.274194	T	293	1951.9
0.275806	T	293	1951.88
0.277419	T	293	1951.86
0.279032	T	293	1951.81
0.280645	T	293	1951.77
0.282258	T	293	1951.76
0.283871	T	293	1951.76
0.285484	T	293	1951.7
0.287097	T	293	1951.62
0.28871	T	293	1951.53
0.290323	T	293	1951.45
0.291935	T	293	1951.37
0.293548	T	293	1951.3
0.295161	T	293	1951.24
0.296774	T	293	1951.18
0.298387	T	293	1951.13
0.3	T	293	1951.07
