# Source : patch region0_to_panelRegion_panel
# Faces  : 10
# Time	sum(magSf)	sum(phi)	sum(HRR_fu)
0.0011976	0.1	1.21973e-19	4.92487e-07
0.00262784	0.1	9.48677e-20	4.63574e-07
0.00432932	0.1	5.42101e-20	4.63574e-07
0.00636756	0.1	1.35525e-19	4.63574e-07
0.00878796	0.1	1.6263e-19	4.63574e-07
0.0116851	0.1	1.89735e-19	4.63574e-07
0.015109	0.1	0	4.63574e-07
0.0191284	0.1	-7.04731e-19	4.63574e-07
0.0238882	0.1	-6.50521e-19	4.63573e-07
0.0295692	0.1	3.25261e-19	4.63573e-07
0.0361242	0.1	2.1684e-19	4.63572e-07
0.0439278	0.1	-4.33681e-19	4.6357e-07
0.0531086	0.1	-3.25261e-19	4.63566e-07
0.0629013	0.1	1.30104e-18	4.63559e-07
0.0726941	0.1	7.58942e-19	4.63549e-07
0.0824868	0.1	-1.30104e-18	4.63536e-07
0.0922796	0.1	-2.1684e-19	4.63523e-07
0.102072	0.1	2.1684e-19	4.63512e-07
0.111865	0.1	-6.50521e-19	4.63502e-07
0.121658	0.1	-4.33681e-19	4.63493e-07
0.131451	0.1	1.0842e-18	4.637e-07
0.141243	0.1	-2.1684e-19	4.6368e-07
0.151036	0.1	-4.33681e-19	4.63662e-07
0.160829	0.1	6.50521e-19	4.63639e-07
0.170622	0.1	4.33681e-19	4.63626e-07
0.180414	0.1	8.67362e-19	4.63617e-07
0.190207	0.1	0	4.63604e-07
0.2	0.1	-2.1684e-18	4.63592e-07
0.209524	0.1	-4.33681e-19	4.63582e-07
0.219048	0.1	-1.51788e-18	4.63568e-07
0.228571	0.1	-8.67362e-19	4.63717e-07
0.238095	0.1	-4.33681e-19	4.63698e-07
0.247619	0.1	-2.1684e-19	4.6368e-07
0.257143	0.1	2.1684e-19	4.63662e-07
0.266667	0.1	-8.67362e-19	4.63646e-07
0.27619	0.1	1.73472e-18	4.6363e-07
0.285714	0.1	-4.33681e-19	4.63615e-07
0.295238	0.1	-2.1684e-19	4.63599e-07
0.304762	0.1	8.67362e-19	4.63582e-07
0.314286	0.1	1.30104e-18	4.63563e-07
0.32381	0.1	-1.0842e-18	4.63653e-07
0.333333	0.1	-2.1684e-19	4.63619e-07
0.342857	0.1	-1.30104e-18	4.6358e-07
0.352381	0.1	-1.73472e-18	4.63539e-07
0.361905	0.1	-6.50521e-19	4.63493e-07
0.371429	0.1	-6.50521e-19	4.63437e-07
0.380952	0.1	2.1684e-19	4.6337e-07
0.390476	0.1	-1.30104e-18	4.63294e-07
0.4	0.1	1.30104e-18	4.63204e-07
0.409524	0.1	-3.25261e-18	4.63102e-07
0.419048	0.1	2.60209e-18	4.63553e-07
0.428571	0.1	-2.1684e-18	4.63373e-07
0.438095	0.1	4.33681e-19	4.63163e-07
0.447619	0.1	1.73472e-18	4.62902e-07
0.457143	0.1	-3.03577e-18	4.62588e-07
0.466667	0.1	4.33681e-18	4.62205e-07
0.47619	0.1	-4.33681e-18	4.61774e-07
0.485714	0.1	1.73472e-18	4.61253e-07
0.495238	0.1	8.67362e-19	4.60671e-07
0.504762	0.1	-1.30104e-18	4.59993e-07
0.514286	0.1	-8.67362e-19	4.59791e-07
0.52381	0.1	-1.73472e-18	4.58886e-07
0.533333	0.1	3.03577e-18	4.57866e-07
0.542857	0.1	-1.73472e-18	4.56728e-07
0.552381	0.1	2.60209e-18	4.55443e-07
0.561905	0.1	6.50521e-18	4.53966e-07
0.571429	0.1	4.77049e-18	4.52338e-07
0.580952	0.1	-3.03577e-18	4.50537e-07
0.590476	0.1	2.1684e-18	4.48594e-07
0.6	0.1	-3.90313e-18	4.46496e-07
0.61	0.1	8.67362e-19	4.45009e-07
0.62	0.1	2.60209e-18	4.42628e-07
0.63	0.1	-1.30104e-18	4.40032e-07
0.64	0.1	3.90313e-18	4.37273e-07
0.65	0.1	-2.60209e-18	4.34423e-07
0.66	0.1	-1.30104e-18	4.31486e-07
0.67	0.1	9.1073e-18	4.28575e-07
0.68	0.1	6.50521e-18	4.25684e-07
0.69	0.1	8.67362e-19	4.22852e-07
0.7	0.1	-8.67362e-18	4.20017e-07
0.71	0.1	-5.20417e-18	4.18227e-07
0.72	0.1	-4.23437e-10	0.0078908
0.73	0.1	-4.83093e-10	0.0207529
0.74	0.1	-5.49951e-10	0.0236168
0.75	0.1	-6.24859e-10	0.0268158
0.76	0.1	-7.08711e-10	0.0303863
0.77	0.1	-8.02527e-10	0.034372
0.78	0.1	-9.07423e-10	0.0388264
0.79	0.1	-1.4276e-09	0.0504934
0.8	0.1	-1.71309e-09	0.0706169
0.81	0.1	-2.06264e-09	0.0846346
0.82	0.1	-2.40206e-09	0.100176
0.83	0.1	-2.79656e-09	0.116391
0.84	0.1	-3.25278e-09	0.135168
0.85	0.1	-3.77767e-09	0.156818
0.86	0.1	-4.80438e-09	0.188052
0.87	0.1	-5.73758e-09	0.233517
0.88	0.1	-6.88214e-09	0.278839
0.89	0.1	-8.29234e-09	0.334351
0.9	0.1	-1.00368e-08	0.402572
0.91	0.1	-1.2201e-08	0.485859
0.92	0.1	-1.3564e-08	0.57773
0.93	0.1	-1.51159e-08	0.642209
0.94	0.1	-1.68738e-08	0.715719
0.95	0.1	-1.93597e-08	0.804322
0.96	0.1	-2.18812e-08	0.919322
0.97	0.1	-2.48112e-08	1.03959
0.98	0.1	-2.82295e-08	1.17948
0.99	0.1	-3.22329e-08	1.34288
1	0.1	-3.69415e-08	1.53435
1.00952	0.1	-4.25016e-08	1.75774
1.01905	0.1	-4.68632e-08	2.01451
1.02857	0.1	-5.22137e-08	2.22592
1.0381	0.1	-5.82023e-08	2.48134
1.04762	0.1	-6.5173e-08	2.76877
1.05714	0.1	-7.32412e-08	3.10267
1.06667	0.1	-8.25444e-08	3.48842
1.07619	0.1	-9.32475e-08	3.9325
1.08571	0.1	-1.05976e-07	4.44761
1.09524	0.1	-1.20141e-07	5.04897
1.10476	0.1	-1.36387e-07	5.70798
1.11429	0.1	-1.39261e-07	6.36927
1.12381	0.1	-1.43391e-07	6.51195
1.13333	0.1	-1.49545e-07	6.71692
1.14286	0.1	-1.56877e-07	7.01148
1.15238	0.1	-1.65773e-07	7.36305
1.1619	0.1	-1.76302e-07	7.78804
1.17143	0.1	-1.88615e-07	8.29039
1.18095	0.1	-2.02875e-07	8.87761
1.19048	0.1	-2.1987e-07	9.55853
1.2	0.1	-2.39055e-07	10.3596
1.21	0.1	-2.52526e-07	11.2268
1.22	0.1	-2.69226e-07	11.877
1.23	0.1	-2.91292e-07	12.6883
1.24	0.1	-3.18399e-07	13.746
1.25	0.1	-3.52492e-07	15.047
1.26	0.1	-3.95999e-07	16.6871
1.27	0.1	-4.5245e-07	18.7902
1.28	0.1	-5.27113e-07	21.5294
1.28923	0.1	-6.25984e-07	25.16
1.29846	0.1	-7.58111e-07	29.9322
1.30692	0.1	-8.62164e-07	35.9668
1.31538	0.1	-9.87498e-07	40.9141
1.32385	0.1	-1.12534e-06	46.8092
1.33231	0.1	-1.29e-06	53.3674
1.34077	0.1	-1.4874e-06	61.2197
1.34923	0.1	-1.72473e-06	70.6586
1.35769	0.1	-2.01085e-06	82.0206
1.36615	0.1	-2.35658e-06	95.7489
1.37292	0.1	-2.7744e-06	112.351
1.37969	0.1	-3.27988e-06	132.181
1.38646	0.1	-3.57198e-06	154.59
1.39323	0.1	-3.93171e-06	168.569
1.4	0.1	-4.37892e-06	185.976
1.40741	0.1	-4.93811e-06	207.675
1.41481	0.1	-5.64034e-06	234.965
1.42222	0.1	-6.62341e-06	270.095
1.42933	0.1	-7.89635e-06	319.019
1.43644	0.1	-9.54261e-06	383.045
1.44326	0.1	-1.15603e-05	465.939
1.45007	0.1	-1.41041e-05	566.314
1.45659	0.1	-1.32346e-05	644.136
1.46311	0.1	-1.25549e-05	605.02
1.46963	0.1	-1.20389e-05	575.83
1.47584	0.1	-1.1629e-05	553.379
1.48175	0.1	-1.13111e-05	535.617
1.48738	0.1	-1.10772e-05	521.941
1.49274	0.1	-1.091e-05	511.924
1.49785	0.1	-1.07955e-05	504.817
