# Time	field	min	max
0.0011976	T	298.15	298.15
0.00262784	T	298.15	298.154
0.00432932	T	298.15	298.159
0.00636756	T	298.15	298.178
0.00878796	T	298.15	298.238
0.0116851	T	298.15	298.345
0.015109	T	298.15	298.519
0.0191284	T	298.15	298.79
0.0238882	T	298.15	299.202
0.0295692	T	298.15	299.823
0.0361242	T	298.15	300.712
0.0439278	T	298.15	302.005
0.0531086	T	298.15	303.85
0.0636008	T	298.15	306.386
0.0760007	T	298.15	309.942
0.0897784	T	298.15	314.612
0.105524	T	298.15	320.828
0.12127	T	298.15	328.043
0.137016	T	298.15	336.23
0.152762	T	298.15	345.367
0.168508	T	298.15	355.438
0.184254	T	298.15	366.424
0.2	T	298.15	378.313
0.218182	T	298.15	392.951
0.238384	T	298.15	410.382
0.261472	T	298.15	431.782
0.289177	T	298.15	455.737
0.316883	T	298.15	478.365
0.344589	T	298.15	499.676
0.372294	T	298.15	519.759
0.4	T	298.15	536.929
0.428571	T	298.15	554.29
0.462857	T	298.15	574.45
0.497143	T	298.15	594.082
0.531429	T	298.15	613.752
0.565714	T	298.15	634.046
0.6	T	298.15	655.356
0.64	T	298.15	697.996
0.68	T	298.15	743.148
0.72	T	298.15	788.673
0.76	T	298.15	843.726
0.8	T	298.15	902.933
0.84	T	298.15	953.597
0.88	T	298.15	1022.82
0.92	T	298.15	1087.4
0.96	T	298.15	1168.13
1	T	298.15	1267.26
1.04	T	298.15	1338.58
1.08	T	298.15	1433.87
1.12	T	298.15	1529.79
1.16	T	298.15	1575.22
1.2	T	298.15	1686.05
1.24	T	298.15	1726.11
1.28	T	298.15	1810.43
1.32	T	298.15	1845.3
1.36	T	298.15	1917.44
1.4	T	298.15	1953.65
1.44	T	298.149	2021.53
1.48	T	298.149	2046.79
1.52	T	298.149	2095.95
1.56	T	298.149	2158.65
1.6	T	298.149	2132.68
1.64	T	298.149	2171.18
1.68	T	298.148	2212.63
1.72	T	298.148	2264.59
1.76	T	298.148	2271.95
1.8	T	298.147	2306.13
1.84	T	298.147	2367.43
1.88	T	298.147	2430.71
1.92	T	298.147	2485.35
1.96	T	298.146	2516.75
2	T	298.146	2539.06
2.04	T	298.147	2550.81
2.08	T	298.147	2554.72
2.12	T	298.147	2535.12
2.16	T	298.148	2497.32
2.2	T	298.148	2425.46
2.24	T	298.149	2375.55
2.28	T	298.149	2344.47
2.32	T	298.149	2313.98
2.36	T	298.149	2276.2
2.38	T	298.148	2240.99
2.4	T	298.144	2225.21
2.41818	T	298.148	2180.38
2.43333	T	298.149	2171.05
2.44722	T	298.148	2182.05
2.46111	T	298.149	2127.85
2.475	T	298.15	2121.22
2.48889	T	298.15	2130.55
2.50278	T	298.15	2111.46
2.51667	T	298.15	2111.46
2.53056	T	298.15	2089.87
2.54444	T	298.15	2069.43
2.55833	T	298.15	2033.04
2.57222	T	298.15	2004.28
2.58611	T	298.15	1985.34
2.6	T	298.149	1971.76
2.61538	T	298.146	1960.83
2.62959	T	298.146	1942.34
2.64379	T	298.148	1916.48
2.65799	T	298.149	1879.23
2.67219	T	298.15	1827.7
2.68639	T	298.15	1791.1
2.70059	T	298.15	1804.6
2.71479	T	298.15	1821.72
2.72899	T	298.15	1841.09
2.7432	T	298.15	1855.81
2.7574	T	298.15	1872.42
2.7716	T	298.15	1890.23
2.7858	T	298.15	1906.19
2.8	T	298.15	1920.55
2.81538	T	298.15	1938.81
2.83217	T	298.15	1954.95
2.85082	T	298.15	1972.08
2.86946	T	298.15	1991.36
2.88811	T	298.15	2006.54
2.90676	T	298.15	2021.9
2.92541	T	298.15	2033.21
2.94406	T	298.15	2044.93
2.9627	T	298.15	2061.03
2.98135	T	298.15	2074.92
3	T	298.15	2085.13
3.01111	T	298.149	2085.93
3.0237	T	298.142	2080.21
3.0384	T	298.15	2072.94
3.05456	T	298.15	2073.31
3.07274	T	298.15	2082.72
3.09092	T	298.15	2088.38
3.1091	T	298.15	2096.33
3.12728	T	298.15	2096.1
3.14546	T	298.15	2084.24
3.16364	T	298.15	2067.22
3.18182	T	298.15	2057.05
3.2	T	298.149	2040.05
3.22	T	298.149	2020.01
3.24	T	298.149	2003.82
3.26	T	298.145	1994.59
3.28	T	298.141	1985.44
3.3	T	298.15	1984.05
3.32	T	298.15	1987.82
3.34	T	298.135	1986.69
3.36	T	298.15	1982.56
3.38	T	298.15	1983.96
3.4	T	298.15	1978.42
3.42	T	298.15	1981.38
3.44	T	298.15	1981.05
3.46	T	298.15	1975.13
3.48	T	298.15	1968.42
3.5	T	298.15	1971.62
3.52	T	298.15	1972.81
3.54	T	298.15	1974.24
3.56	T	298.15	1973.45
3.58	T	298.149	1972.27
3.6	T	298.15	1971.57
3.62222	T	298.15	1970.81
3.64444	T	298.15	1970.69
3.66667	T	298.15	1968.35
3.68889	T	298.15	1965.77
3.71111	T	298.15	1959.76
3.73333	T	298.15	1952.08
3.75556	T	298.15	1944.7
3.77778	T	298.15	1939.88
3.8	T	298.15	1932.65
3.82222	T	298.15	1925.27
3.84444	T	298.15	1919.28
3.86667	T	298.15	1914.26
3.88889	T	298.15	1910.17
3.91111	T	298.15	1914.96
3.93333	T	298.15	1918.51
3.95556	T	298.15	1913.72
3.97778	T	298.15	1913.44
4	T	298.15	1915.98
4.02222	T	298.15	1918.83
4.04444	T	298.15	1919.74
4.06667	T	298.15	1922.48
4.08889	T	298.15	1924.63
4.11111	T	298.15	1923.63
4.13333	T	298.15	1924.62
4.15556	T	298.15	1927.15
4.17778	T	298.15	1928.86
4.2	T	298.15	1927.36
4.225	T	298.15	1928.09
4.25417	T	298.15	1931.3
4.28333	T	298.15	1933.36
4.3125	T	298.15	1938.04
4.34167	T	298.15	1945.07
4.37083	T	298.15	1942.2
4.4	T	298.15	1940.83
4.43333	T	298.149	1941.84
4.46667	T	298.14	1947.73
4.5	T	298.123	1947.55
4.53333	T	298.06	1949.85
4.56667	T	298.002	1945.75
4.6	T	297.928	1946.99
4.63333	T	297.856	1944.28
4.66667	T	297.82	1938.59
4.7	T	297.775	1938.09
4.73333	T	297.703	1932.63
4.76667	T	297.67	1933.09
4.8	T	297.647	1929.24
4.83333	T	297.592	1929.62
4.86667	T	297.534	1923.49
4.9	T	297.503	1926.4
4.93333	T	297.475	1922.63
4.96667	T	297.423	1923.9
5	T	297.365	1929.76
5.03333	T	297.335	1933.36
5.06667	T	297.285	1930.39
5.1	T	297.247	1934.42
5.13333	T	297.181	1930.74
5.16667	T	297.118	1930.81
5.2	T	297.058	1925.49
5.23333	T	296.991	1925.8
5.26667	T	296.915	1926.67
5.3	T	296.854	1934.32
5.33333	T	296.799	1933.81
5.36667	T	296.773	1936.86
5.4	T	296.736	1934.53
5.43333	T	296.666	1930.07
5.46667	T	296.594	1925.64
5.5	T	296.558	1919.94
5.53333	T	296.507	1917.45
5.56667	T	296.462	1907.4
5.6	T	296.383	1904.33
5.63333	T	296.336	1896.96
5.66667	T	296.275	1888.72
5.7	T	296.224	1880.67
5.73333	T	296.154	1863.14
5.76667	T	296.094	1863.1
5.8	T	296.043	1837.61
5.83333	T	296.003	1832.86
5.86667	T	295.952	1818.5
5.9	T	295.92	1811.36
5.93333	T	295.917	1796.13
5.96667	T	295.892	1777.27
6	T	295.826	1771.01
6.03333	T	295.789	1756.8
6.06667	T	295.785	1739.98
6.1	T	295.738	1707.41
6.13333	T	295.702	1698.39
6.16667	T	295.696	1685.49
6.2	T	295.651	1701.01
6.23333	T	295.612	1697.28
6.26667	T	295.599	1684.94
6.3	T	295.55	1710.97
6.33333	T	295.463	1703.27
6.36667	T	295.437	1705.91
6.4	T	295.45	1696.16
6.43333	T	295.475	1703.08
6.46667	T	295.513	1689.77
6.5	T	295.527	1686.18
6.53333	T	295.533	1695.56
6.56667	T	295.525	1721.33
6.6	T	295.494	1744.02
6.64	T	295.502	1765.61
6.68	T	295.546	1751.48
6.72	T	295.544	1711.14
6.76	T	295.522	1704.87
6.8	T	295.557	1702.17
6.84	T	295.569	1681.58
6.88	T	295.573	1673.09
6.92	T	295.584	1674.19
6.96	T	295.603	1655.42
7	T	295.61	1666.86
7.04	T	295.617	1609.09
7.08	T	295.633	1605.72
7.12	T	295.647	1617.31
7.16	T	295.651	1614.15
7.2	T	295.655	1612.34
7.24	T	295.667	1607.47
7.28	T	295.677	1589.78
7.32	T	295.68	1601.59
7.36	T	295.684	1598.09
7.4	T	295.689	1597.03
7.44	T	295.696	1563.14
7.48	T	295.703	1585.82
7.52	T	295.707	1623
7.56	T	295.709	1639.04
7.6	T	295.711	1642.24
7.64	T	295.712	1628.33
7.68	T	295.714	1628.46
7.72	T	295.715	1643.91
7.76	T	295.717	1672.39
7.8	T	295.719	1683.57
7.84	T	295.722	1669.77
7.88	T	295.727	1638.8
7.92	T	295.736	1622.13
7.96	T	295.744	1616.57
8	T	295.747	1623.56
8.04	T	295.751	1588.97
8.08	T	295.76	1573.68
8.12	T	295.775	1573.42
8.16	T	295.792	1572.09
8.2	T	295.798	1561.76
8.24	T	295.815	1555.65
8.28	T	295.832	1564.35
8.32	T	295.862	1555.35
8.36	T	295.896	1550.68
8.4	T	295.933	1540.5
8.44	T	295.943	1503.43
8.48	T	295.955	1448.16
8.52	T	295.929	1423.33
8.56	T	295.935	1435.23
8.6	T	295.929	1414.22
8.64	T	295.914	1443.84
8.68	T	295.893	1446.72
8.72	T	295.881	1496.49
8.76	T	295.882	1520.16
8.8	T	295.884	1537.39
8.84	T	295.88	1567.85
8.88	T	295.881	1543.58
8.92	T	295.883	1567.44
8.96	T	295.9	1551
9	T	295.921	1529.24
9.04	T	295.963	1492.22
9.08	T	295.998	1580.72
9.12	T	296.021	1631.59
9.16	T	296	1579.63
9.2	T	295.952	1563.54
9.24	T	295.88	1517.15
9.28	T	295.742	1482.94
9.32	T	295.687	1460.36
9.36	T	295.625	1434.04
9.4	T	295.526	1385.47
9.44	T	295.437	1324.76
9.48	T	295.33	1271.16
9.52	T	295.248	1233.07
9.56	T	295.194	1253.63
9.6	T	295.143	1348.96
9.64	T	295.072	1429.16
9.68	T	295.034	1443.14
9.72	T	294.934	1415.44
9.76	T	294.869	1388.6
9.78	T	294.815	1392.17
9.8	T	294.784	1403.59
9.82222	T	294.742	1389.12
9.84762	T	294.681	1378.92
9.87302	T	294.629	1403.45
9.89841	T	294.589	1440.44
9.92381	T	294.561	1458.49
9.94921	T	294.533	1481.16
9.9746	T	294.476	1472.8
10	T	294.421	1420.1
