# Time	field	min	max
0.0011976	T	298.15	298.15
0.00262784	T	298.15	298.154
0.00432932	T	298.15	298.167
0.00636756	T	298.15	298.197
0.00878796	T	298.15	298.257
0.0116851	T	298.15	298.363
0.015109	T	298.15	298.537
0.0191284	T	298.15	298.808
0.0238882	T	298.15	299.221
0.0295692	T	298.15	299.841
0.0361242	T	298.15	300.73
0.0439278	T	298.15	302.023
0.0531086	T	298.15	303.868
0.0636008	T	298.15	306.403
0.0760007	T	298.15	309.959
0.0897784	T	298.15	314.629
0.105524	T	298.15	320.845
0.12127	T	298.15	328.06
0.137016	T	298.15	336.247
0.152762	T	298.15	345.385
0.168508	T	298.15	355.455
0.184254	T	298.15	366.442
0.2	T	298.15	378.33
0.218182	T	298.15	392.968
0.238384	T	298.15	410.409
0.261472	T	298.15	431.809
0.289177	T	298.15	455.765
0.316883	T	298.15	478.393
0.344589	T	298.15	499.706
0.372294	T	298.15	519.796
0.4	T	298.15	536.949
0.428571	T	298.15	554.315
0.462857	T	298.15	574.484
0.497143	T	298.15	594.126
0.531429	T	298.15	613.806
0.565714	T	298.15	634.113
0.6	T	298.15	655.443
0.64	T	298.15	698.167
0.68	T	298.15	743.328
0.72	T	298.15	788.881
0.76	T	298.15	844
0.8	T	298.15	903.285
0.84	T	298.15	954.01
0.88	T	298.15	1023.16
0.92	T	298.15	1087.73
0.96	T	298.15	1168.69
1	T	298.15	1267.77
1.04	T	298.15	1340.85
1.08	T	298.15	1435.2
1.12	T	298.15	1529.9
1.16	T	298.15	1579.91
1.2	T	298.15	1688.2
1.24	T	298.15	1726.47
1.28	T	298.15	1814.02
1.32	T	298.15	1863.92
1.36	T	298.15	1924.38
1.4	T	298.15	1965.49
1.44	T	298.15	2020.63
1.48	T	298.15	2060.64
1.52	T	298.15	2094.81
1.56	T	298.15	2165.93
1.6	T	298.149	2134.86
1.64	T	298.149	2171.43
1.68	T	298.149	2214.51
1.72	T	298.149	2250.54
1.76	T	298.149	2298.51
1.8	T	298.149	2306.03
1.84	T	298.148	2364.45
1.88	T	298.148	2429.28
1.92	T	298.148	2482.14
1.96	T	298.147	2511.1
2	T	298.147	2534.49
2.04	T	298.147	2546.95
2.08	T	298.148	2554.78
2.12	T	298.148	2538.94
2.16	T	298.148	2500.16
2.2	T	298.148	2427.89
2.24	T	298.149	2376.16
2.28	T	298.149	2347.45
2.32	T	298.149	2325.13
2.36	T	298.128	2288.49
2.38	T	298.135	2257.1
2.4	T	298.138	2230.44
2.41818	T	298.141	2179.16
2.43333	T	298.143	2165.98
2.44722	T	298.145	2178.25
2.45995	T	298.146	2128.88
2.47396	T	298.147	2122.27
2.48796	T	298.148	2122
2.50197	T	298.148	2098.01
2.51597	T	298.149	2098.01
2.52998	T	298.149	2073.15
2.54398	T	298.149	2049.34
2.55799	T	298.15	2009.37
2.57199	T	298.15	1971.76
2.586	T	298.149	1938.38
2.6	T	298.148	1882.32
2.61429	T	298.146	1787.19
2.62755	T	298.146	1770.96
2.64192	T	298.147	1772.93
2.65773	T	298.149	1782.56
2.67354	T	298.15	1794.07
2.68935	T	298.15	1804.93
2.70318	T	298.15	1812.73
2.71701	T	298.15	1822.96
2.73084	T	298.15	1837.58
2.74467	T	298.15	1850.51
2.7585	T	298.15	1875.76
2.77234	T	298.15	1897.48
2.78617	T	298.15	1913.56
2.8	T	298.15	1927.72
2.81538	T	298.15	1945.29
2.83217	T	298.15	1957.36
2.85082	T	298.15	1976.74
2.86946	T	298.15	1991.14
2.88811	T	298.15	2000.34
2.90676	T	298.15	2014.47
2.92541	T	298.15	2027.59
2.94406	T	298.15	2043.13
2.9627	T	298.15	2057.08
2.98135	T	298.15	2071.39
3	T	298.15	2080.18
3.02	T	298.15	2085.54
3.0425	T	298.15	2096.63
3.053	T	298.15	2080.63
3.06431	T	298.147	2069.19
3.07788	T	298.149	2061.7
3.09314	T	298.15	2064.7
3.10841	T	298.15	2064.6
3.12367	T	298.15	2064.13
3.13894	T	298.15	2059.99
3.1542	T	298.148	2046.37
3.16947	T	298.15	2031.48
3.18473	T	298.15	2018.23
3.2	T	298.15	2007.65
3.21667	T	298.147	1999.18
3.235	T	298.143	1997.09
3.25333	T	298.148	1987.56
3.27167	T	298.149	1994.27
3.29	T	298.144	1994.18
3.30833	T	298.146	1993.33
3.32667	T	298.146	2002.5
3.345	T	298.15	2010.31
3.36333	T	298.15	2010.83
3.38167	T	298.15	2009.04
3.4	T	298.15	2013.95
3.42	T	298.15	2015.81
3.44	T	298.15	2013.48
3.46	T	298.15	2011.15
3.48	T	298.15	2006.99
3.5	T	298.15	2003.02
3.52	T	298.15	1991.51
3.54	T	298.15	1984.5
3.56	T	298.15	1977.39
3.58	T	298.15	1974.58
3.6	T	298.15	1968.8
3.62222	T	298.15	1962.42
3.64444	T	298.15	1957.24
3.66667	T	298.15	1956.29
3.68889	T	298.15	1953.13
3.71111	T	298.15	1949.13
3.73333	T	298.15	1944.84
3.75556	T	298.15	1942.31
3.77778	T	298.15	1936.09
3.8	T	298.15	1938.36
3.82222	T	298.15	1938.53
3.84444	T	298.15	1936.5
3.86667	T	298.15	1937.04
3.88889	T	298.15	1935.63
3.91111	T	298.15	1934.92
3.93333	T	298.15	1936.67
3.95556	T	298.15	1935.75
3.97778	T	298.15	1934.05
4	T	298.15	1932.31
4.02222	T	298.15	1927.62
4.04444	T	298.15	1933.49
4.06667	T	298.15	1934.76
4.08889	T	298.15	1937.8
4.11111	T	298.15	1938.88
4.13333	T	298.15	1939.24
4.15556	T	298.15	1936.18
4.17778	T	298.15	1936.56
4.2	T	298.15	1940.32
4.225	T	298.15	1940.48
4.25417	T	298.15	1942.23
4.28333	T	298.15	1939.98
4.3125	T	298.15	1939.78
4.34167	T	298.15	1937.76
4.37083	T	298.15	1938.25
4.4	T	298.15	1932.32
4.43333	T	298.149	1932.96
4.46667	T	298.138	1929.47
4.5	T	298.121	1926.36
4.53333	T	298.1	1929.07
4.56667	T	298.089	1922.58
4.6	T	298.055	1918.31
4.63333	T	297.999	1915.3
4.66667	T	297.93	1915.47
4.7	T	297.863	1915.15
4.73333	T	297.763	1916.21
4.76667	T	297.718	1917.74
4.8	T	297.671	1921.4
4.83333	T	297.569	1925.7
4.86667	T	297.495	1927.12
4.9	T	297.463	1921.78
4.93333	T	297.406	1925.31
4.96667	T	297.382	1920.15
5	T	297.334	1922.31
5.03333	T	297.288	1926.89
5.06667	T	297.224	1929.77
5.1	T	297.167	1932.96
5.13333	T	297.098	1941.14
5.16667	T	297.021	1940.27
5.2	T	296.933	1944.27
5.23333	T	296.848	1938.82
5.26667	T	296.783	1938.95
5.3	T	296.699	1930.37
5.33333	T	296.664	1928.38
5.36667	T	296.626	1921.18
5.4	T	296.58	1909.75
5.43333	T	296.519	1895.19
5.46667	T	296.462	1878.23
5.5	T	296.407	1876.24
5.53333	T	296.379	1876.63
5.56667	T	296.317	1873.16
5.6	T	296.239	1861.21
5.63333	T	296.182	1845.55
5.66667	T	296.101	1820.49
5.7	T	296.016	1785.3
5.73333	T	295.928	1742.92
5.76667	T	295.845	1736.9
5.8	T	295.768	1730.36
5.83333	T	295.66	1730.82
5.86667	T	295.602	1738.52
5.9	T	295.528	1754.75
5.93333	T	295.497	1760.78
5.96667	T	295.494	1760.79
6	T	295.458	1762.58
6.03333	T	295.42	1750.56
6.06667	T	295.33	1747.04
6.1	T	295.287	1737.25
6.13333	T	295.275	1742.54
6.16667	T	295.289	1737.59
6.2	T	295.249	1743.48
6.23333	T	295.241	1737.91
6.26667	T	295.193	1731.99
6.3	T	295.104	1717.22
6.33333	T	295.037	1689.95
6.36667	T	294.977	1683.46
6.4	T	294.901	1701.74
6.43333	T	294.849	1694.52
6.46667	T	294.807	1700.61
6.5	T	294.779	1710
6.53333	T	294.751	1732.82
6.56667	T	294.808	1719.9
6.6	T	294.881	1735.55
6.64	T	294.95	1733.82
6.68	T	294.96	1739.03
6.72	T	294.98	1743.34
6.76	T	294.987	1734.3
6.8	T	295.014	1753.38
6.84	T	295.021	1766.88
6.88	T	295.041	1769.18
6.92	T	295.058	1754.6
6.96	T	295.069	1756.17
7	T	295.07	1707.48
7.04	T	295.074	1690.02
7.08	T	295.085	1693.04
7.12	T	295.093	1688.16
7.16	T	295.096	1695.54
7.2	T	295.097	1689.64
7.24	T	295.103	1670.59
7.28	T	295.111	1657.37
7.32	T	295.108	1673.81
7.36	T	295.111	1686.29
7.4	T	295.11	1691.3
7.44	T	295.118	1675.46
7.48	T	295.124	1668.51
7.52	T	295.132	1634.1
7.56	T	295.135	1656.37
7.6	T	295.137	1664.77
7.64	T	295.139	1671.3
7.68	T	295.142	1669.47
7.72	T	295.145	1658.42
7.76	T	295.149	1668.25
7.8	T	295.155	1663.32
7.84	T	295.159	1639.15
7.88	T	295.166	1618.34
7.92	T	295.17	1619.95
7.96	T	295.175	1601.12
8	T	295.177	1581.91
8.04	T	295.178	1578.17
8.08	T	295.18	1576.02
8.12	T	295.182	1604.86
8.16	T	295.184	1669.46
8.2	T	295.187	1690
8.24	T	295.109	1733.62
8.28	T	295.051	1739.62
8.32	T	294.973	1697.9
8.36	T	294.899	1638.36
8.4	T	294.787	1660.23
8.44	T	294.732	1703.93
8.48	T	294.706	1723.46
8.52	T	294.602	1689.88
8.56	T	294.569	1651.94
8.6	T	294.652	1633.52
8.64	T	294.685	1612.71
8.68	T	294.554	1568.51
8.72	T	294.451	1522.02
8.76	T	294.445	1474.33
8.8	T	294.382	1481.3
8.84	T	294.304	1488.28
8.88	T	294.186	1489.42
8.92	T	294.136	1563.18
8.96	T	294.022	1582.56
9	T	293.926	1612.07
9.04	T	293.951	1573.67
9.08	T	293.792	1554.78
9.12	T	293.692	1514.01
9.16	T	293.643	1456.99
9.2	T	293.562	1587.33
9.24	T	293.559	1745.62
9.28	T	293.53	1800.31
9.32	T	293.469	1795.93
9.36	T	293.438	1805.93
9.4	T	293.459	1772.47
9.44	T	293.501	1732.76
9.48	T	293.534	1709.48
9.52	T	293.559	1668.83
9.56	T	293.588	1674.74
9.6	T	293.611	1653.95
9.64	T	293.633	1635.29
9.68	T	293.662	1675.06
9.72	T	293.686	1705.76
9.76	T	293.698	1719.76
9.8	T	293.717	1715.34
9.84	T	293.74	1780.32
9.88	T	293.761	1697.6
9.92	T	293.768	1631.16
9.96	T	293.778	1695.09
10	T	293.791	1659.39
