# Source : all c0
# Cells  : 500
# Time	sum(V)	volIntegrate(dQ)
0.00192308	8e-07	0
0.00384615	8e-07	40.4485
0.00414201	8e-07	65.433
0.0042596	8e-07	124.281
0.00431497	8e-07	172.906
0.00435173	8e-07	161.206
0.00438579	8e-07	107.726
0.00442445	8e-07	64.4131
0.00447081	8e-07	42.3123
0.0045264	8e-07	30.2351
0.00459308	8e-07	25.5849
0.00467302	8e-07	24.6642
0.00476885	8e-07	23.1775
0.00488365	8e-07	22.7077
0.00501954	8e-07	20.2415
0.00517737	8e-07	20.3771
0.00535738	8e-07	21.5344
0.0055603	8e-07	19.3048
0.00578703	8e-07	19.8245
0.00603968	8e-07	18.2769
0.00631968	8e-07	17.7837
0.00661683	8e-07	17.5382
0.00692894	8e-07	17.3645
0.00725772	8e-07	16.4387
0.00759695	8e-07	15.9651
0.00795031	8e-07	15.1724
0.00831916	8e-07	14.1316
0.00870156	8e-07	13.7273
0.00909866	8e-07	13.1012
0.00951602	8e-07	12.0281
0.00995606	8e-07	11.5356
0.0104272	8e-07	10.8909
0.0109345	8e-07	10.1014
0.0114847	8e-07	9.61153
0.0120865	8e-07	9.15512
0.0127402	8e-07	8.81556
0.0134567	8e-07	8.36956
0.0142512	8e-07	7.9591
0.0151231	8e-07	7.69951
0.0160919	8e-07	7.34562
0.0171515	8e-07	7.19178
0.0182842	8e-07	7.14253
0.0195041	8e-07	6.92211
0.02083	8e-07	6.67171
0.022219	8e-07	6.72625
0.0236812	8e-07	6.59391
0.0252293	8e-07	6.41627
0.0267775	8e-07	6.64116
0.0284363	8e-07	6.22982
0.030095	8e-07	6.50606
0.0319046	8e-07	5.90951
0.0337141	8e-07	6.31348
0.0355236	8e-07	6.28287
0.0373332	8e-07	6.3499
0.0391427	8e-07	6.28758
0.0406938	8e-07	7.30774
0.0422448	8e-07	6.62046
0.0437958	8e-07	6.49829
0.0450367	8e-07	7.9844
0.0462775	8e-07	6.85618
0.0475183	8e-07	6.57882
0.0487592	8e-07	6.462
0.05	8e-07	6.31523
0.0513514	8e-07	5.71859
0.0527027	8e-07	6.05584
0.0541807	8e-07	5.56418
0.0556588	8e-07	5.86278
0.0570444	8e-07	6.32407
0.0584763	8e-07	5.90451
0.0598604	8e-07	6.19122
0.0612445	8e-07	6.03109
0.0626287	8e-07	5.98557
0.0640128	8e-07	5.94676
0.0653969	8e-07	5.91429
0.066781	8e-07	5.87883
0.0681652	8e-07	5.85473
0.0695493	8e-07	5.83033
0.0709334	8e-07	5.80439
0.0723175	8e-07	5.78038
0.0737017	8e-07	5.76118
0.0750858	8e-07	5.74052
0.0764699	8e-07	5.72179
0.077854	8e-07	5.70076
0.0792381	8e-07	5.67135
0.0806223	8e-07	5.64747
0.0820064	8e-07	5.62092
0.0833905	8e-07	5.60077
0.0847746	8e-07	5.58342
0.0861588	8e-07	5.5686
0.0875429	8e-07	5.54688
0.088927	8e-07	5.53222
0.0903111	8e-07	5.51899
0.0916953	8e-07	5.50801
0.0930794	8e-07	5.49828
0.0944635	8e-07	5.49014
0.0958476	8e-07	5.47992
0.0972318	8e-07	5.46745
0.0986159	8e-07	5.46167
0.1	8e-07	5.45622
0.101515	8e-07	4.98332
0.10303	8e-07	5.29905
0.104596	8e-07	5.16716
0.106109	8e-07	5.49446
0.107623	8e-07	5.42193
0.109136	8e-07	5.43095
0.11065	8e-07	5.42753
0.112163	8e-07	5.42309
0.113677	8e-07	5.41742
0.11519	8e-07	5.41757
0.116704	8e-07	5.41226
0.118217	8e-07	5.41291
0.119731	8e-07	5.41593
0.121244	8e-07	5.41767
0.122758	8e-07	5.41599
0.124271	8e-07	5.41978
0.125785	8e-07	5.42422
0.127298	8e-07	5.42949
0.128811	8e-07	5.43551
0.130325	8e-07	5.44054
0.131838	8e-07	5.44273
0.133352	8e-07	5.44207
0.134865	8e-07	5.44536
0.136379	8e-07	5.44962
0.137892	8e-07	5.45502
0.139406	8e-07	5.45983
0.140919	8e-07	5.46531
0.142433	8e-07	5.47144
0.143946	8e-07	5.47795
0.14546	8e-07	5.48485
0.146973	8e-07	5.49197
0.148487	8e-07	5.49916
0.15	8e-07	5.50638
0.151613	8e-07	5.17393
0.153226	8e-07	5.40926
0.154896	8e-07	5.24901
0.156507	8e-07	5.60353
0.158118	8e-07	5.50898
0.159729	8e-07	5.52502
0.16134	8e-07	5.53118
0.162951	8e-07	5.53206
0.164561	8e-07	5.53541
0.166172	8e-07	5.54465
0.167783	8e-07	5.55119
0.169394	8e-07	5.55575
0.171005	8e-07	5.56219
0.172616	8e-07	5.56893
0.174226	8e-07	5.57415
0.175837	8e-07	5.5794
0.177448	8e-07	5.58511
0.179059	8e-07	5.59031
0.18067	8e-07	5.59398
0.182281	8e-07	5.59801
0.183892	8e-07	5.60013
0.185502	8e-07	5.60379
0.187113	8e-07	5.6075
0.188724	8e-07	5.61139
0.190335	8e-07	5.61537
0.191946	8e-07	5.61868
0.193557	8e-07	5.62138
0.195167	8e-07	5.6248
0.196778	8e-07	5.62817
0.198389	8e-07	5.63154
0.2	8e-07	5.63493
0.201613	8e-07	5.63104
0.203226	8e-07	5.63916
0.204839	8e-07	5.64271
0.206452	8e-07	5.64612
0.208065	8e-07	5.64952
0.209677	8e-07	5.65255
0.21129	8e-07	5.65522
0.212903	8e-07	5.65792
0.214516	8e-07	5.66055
0.216129	8e-07	5.66298
0.217742	8e-07	5.66531
0.219355	8e-07	5.6676
0.220968	8e-07	5.66979
0.222581	8e-07	5.67188
0.224194	8e-07	5.6739
0.225806	8e-07	5.67585
0.227419	8e-07	5.67771
0.229032	8e-07	5.67948
0.230645	8e-07	5.68121
0.232258	8e-07	5.68285
0.233871	8e-07	5.68406
0.235484	8e-07	5.68541
0.237097	8e-07	5.68679
0.23871	8e-07	5.68811
0.240323	8e-07	5.68944
0.241935	8e-07	5.69073
0.243548	8e-07	5.69195
0.245161	8e-07	5.69314
0.246774	8e-07	5.69424
0.248387	8e-07	5.69532
0.25	8e-07	5.69636
0.251613	8e-07	5.69734
0.253226	8e-07	5.69829
0.254839	8e-07	5.69921
0.256452	8e-07	5.70007
0.258065	8e-07	5.70089
0.259677	8e-07	5.70168
0.26129	8e-07	5.70243
0.262903	8e-07	5.70315
0.264516	8e-07	5.70384
0.266129	8e-07	5.7045
0.267742	8e-07	5.70511
0.269355	8e-07	5.70571
0.270968	8e-07	5.70628
0.272581	8e-07	5.70682
0.274194	8e-07	5.70733
0.275806	8e-07	5.70782
0.277419	8e-07	5.70828
0.279032	8e-07	5.70872
0.280645	8e-07	5.70915
0.282258	8e-07	5.70955
0.283871	8e-07	5.70993
0.285484	8e-07	5.71029
0.287097	8e-07	5.71063
0.28871	8e-07	5.71095
0.290323	8e-07	5.71126
0.291935	8e-07	5.71156
0.293548	8e-07	5.71184
0.295161	8e-07	5.7121
0.296774	8e-07	5.71235
0.298387	8e-07	5.71259
0.3	8e-07	5.71282
