# Source : patch region0_to_panelRegion_panel
# Faces  : 10
# Time	sum(magSf)	sum(phi)	sum(HRR_fu)
0.0011976	0.1	6.77626e-20	4.92487e-07
0.00262784	0.1	8.13152e-20	4.63574e-07
0.00432932	0.1	9.48677e-20	4.63574e-07
0.00636756	0.1	-8.13152e-20	4.63574e-07
0.00878796	0.1	-3.52366e-19	4.63574e-07
0.0116851	0.1	-4.06576e-19	4.63574e-07
0.015109	0.1	-4.33681e-19	4.63574e-07
0.0191284	0.1	1.6263e-19	4.63574e-07
0.0238882	0.1	-5.42101e-19	4.63573e-07
0.0295692	0.1	-2.71051e-19	4.63573e-07
0.0361242	0.1	8.67362e-19	4.63573e-07
0.0439278	0.1	-2.1684e-19	4.63572e-07
0.0531086	0.1	1.40946e-18	4.6357e-07
0.0629013	0.1	-2.1684e-19	4.63568e-07
0.0726941	0.1	-1.0842e-18	4.63566e-07
0.0824868	0.1	-9.75782e-19	4.63562e-07
0.0922796	0.1	-1.19262e-18	4.63557e-07
0.102072	0.1	-1.30104e-18	4.63551e-07
0.111865	0.1	1.30104e-18	4.63543e-07
0.121658	0.1	4.33681e-19	4.63535e-07
0.131451	0.1	0	4.63621e-07
0.141243	0.1	6.50521e-19	4.63605e-07
0.151036	0.1	0	4.6359e-07
0.160829	0.1	-1.30104e-18	4.63575e-07
0.170622	0.1	-2.1684e-19	4.63559e-07
0.180414	0.1	-2.1684e-19	4.63543e-07
0.190207	0.1	-1.30104e-18	4.63528e-07
0.2	0.1	-1.0842e-18	4.63514e-07
0.209524	0.1	-6.50521e-19	4.63502e-07
0.219048	0.1	-1.30104e-18	4.63489e-07
0.228571	0.1	-6.50521e-19	4.64223e-07
0.238095	0.1	4.33681e-19	4.64161e-07
0.247619	0.1	-2.1684e-19	4.64107e-07
0.257143	0.1	-1.73472e-18	4.64059e-07
0.266667	0.1	0	4.64017e-07
0.27619	0.1	-8.67362e-19	4.63977e-07
0.285714	0.1	0	4.63939e-07
0.295238	0.1	8.67362e-19	4.63903e-07
0.304762	0.1	4.33681e-19	4.63869e-07
0.314286	0.1	-1.30104e-18	4.63835e-07
0.32381	0.1	4.33681e-19	4.64059e-07
0.333333	0.1	0	4.64016e-07
0.342857	0.1	6.50521e-19	4.63968e-07
0.352381	0.1	8.67362e-19	4.63923e-07
0.361905	0.1	3.03577e-18	4.63878e-07
0.371429	0.1	6.50521e-19	4.63836e-07
0.380952	0.1	-4.33681e-19	4.63791e-07
0.390476	0.1	-2.1684e-18	4.63744e-07
0.4	0.1	-2.38524e-18	4.63691e-07
0.409524	0.1	0	4.63632e-07
0.419048	0.1	-4.33681e-19	4.64185e-07
0.428571	0.1	4.33681e-18	4.64061e-07
0.438095	0.1	-1.73472e-18	4.63933e-07
0.447619	0.1	0	4.6379e-07
0.457143	0.1	8.67362e-19	4.63634e-07
0.466667	0.1	-6.37737e-10	0.000527031
0.47619	0.1	-1.04938e-09	0.030327
0.485714	0.1	-1.68349e-09	0.0499865
0.495238	0.1	-2.63858e-09	0.0803592
0.504762	0.1	-4.04776e-09	0.126159
0.514286	0.1	-6.08786e-09	0.193511
0.52381	0.1	-8.00408e-09	0.289632
0.533333	0.1	-1.0457e-08	0.38204
0.542857	0.1	-1.35734e-08	0.500679
0.552381	0.1	-1.75025e-08	0.651756
0.561905	0.1	-2.24196e-08	0.842534
0.571429	0.1	-2.85286e-08	1.07914
0.580952	0.1	-3.60653e-08	1.37423
0.590476	0.1	-4.5321e-08	1.73862
0.6	0.1	-5.66175e-08	2.18723
0.61	0.1	-7.03202e-08	2.73798
0.62	0.1	-9.1954e-08	3.4369
0.63	0.1	-1.20473e-07	4.50653
0.64	0.1	-1.56688e-07	5.88923
0.65	0.1	-2.01161e-07	7.63632
0.66	0.1	-2.56006e-07	9.77611
0.67	0.1	-3.23055e-07	12.4058
0.68	0.1	-4.04487e-07	15.6129
0.69	0.1	-5.03168e-07	19.5049
0.7	0.1	-6.219e-07	24.204
0.71	0.1	-7.63387e-07	29.8002
0.72	0.1	-8.78252e-07	36.2028
0.73	0.1	-1.01155e-06	41.6378
0.74	0.1	-1.16676e-06	47.9676
0.75	0.1	-1.3483e-06	55.346
0.76	0.1	-1.56133e-06	63.9861
0.77	0.1	-1.81204e-06	74.1295
0.78	0.1	-2.10787e-06	86.0791
0.79	0.1	-2.45772e-06	100.194
0.8	0.1	-2.87302e-06	116.907
0.81	0.1	-3.36561e-06	136.72
0.82	0.1	-3.85719e-06	160.255
0.83	0.1	-4.41941e-06	183.852
0.84	0.1	-5.06261e-06	210.857
0.85	0.1	-5.79878e-06	241.771
0.86	0.1	-6.6428e-06	277.168
0.87	0.1	-7.61473e-06	317.715
0.88	0.1	-8.73982e-06	364.532
0.89	0.1	-1.00512e-05	418.769
0.9	0.1	-1.15903e-05	482.068
0.91	0.1	-1.34084e-05	555.712
0.92	0.1	-1.45302e-05	639.621
0.93	0.1	-1.57677e-05	693.073
0.94	0.1	-1.71216e-05	752.457
0.95	0.1	-1.85927e-05	817.132
0.96	0.1	-2.01924e-05	887.171
0.97	0.1	-2.19392e-05	963.148
0.98	0.1	-2.38606e-05	1046
0.99	0.1	-2.59958e-05	1137.17
1	0.1	-2.83962e-05	1238.73
1.00952	0.1	-3.11292e-05	1351.77
1.01905	0.1	-3.23957e-05	1475.41
1.02857	0.1	-3.36437e-05	1531.07
1.0381	0.1	-3.49702e-05	1589.6
1.04762	0.1	-3.63534e-05	1651.47
1.05714	0.1	-3.7785e-05	1715.77
1.06667	0.1	-3.9262e-05	1782.21
1.07619	0.1	-4.07865e-05	1850.71
1.08571	0.1	-4.23631e-05	1921.38
1.09524	0.1	-4.40018e-05	1994.52
1.10476	0.1	-4.57141e-05	2070.03
1.11429	0.1	-4.72901e-05	2166.02
1.12381	0.1	-4.88462e-05	2236.59
1.13333	0.1	-5.03718e-05	2306.67
1.14286	0.1	-5.18617e-05	2375.46
1.15238	0.1	-5.33165e-05	2442.73
1.1619	0.1	-5.47389e-05	2508.56
1.17143	0.1	-5.61308e-05	2573.07
1.18095	0.1	-5.74979e-05	2636.4
1.19048	0.1	-5.8843e-05	2698.73
1.2	0.1	-6.01716e-05	2760.22
1.21	0.1	-6.14681e-05	2820.69
1.22	0.1	-6.26573e-05	2877.96
1.23	0.1	-6.42134e-05	2943.67
1.24	0.1	-6.57941e-05	3017.07
1.25	0.1	-6.73762e-05	3090.92
1.26	0.1	-6.89401e-05	3164.27
1.27	0.1	-7.04721e-05	3236.35
1.28	0.1	-7.19658e-05	3306.7
1.29	0.1	-7.34155e-05	3375.04
1.3	0.1	-7.48228e-05	3442.33
1.31	0.1	-7.78149e-05	3554.38
1.32	0.1	-8.04619e-05	3683.08
1.33	0.1	-8.28297e-05	3797.28
1.34	0.1	-8.49183e-05	3898.34
1.35	0.1	-8.6818e-05	3989.28
1.36	0.1	-8.85409e-05	4071.81
1.37	0.1	-9.01232e-05	4147.31
1.38	0.1	-9.15978e-05	4217.35
1.39	0.1	-9.29908e-05	4283.26
1.4	0.1	-9.43203e-05	4347.87
1.41	0.1	-9.98905e-05	4553.77
1.42	0.1	-0.000104254	4774.37
1.43	0.1	-0.000107633	4944.26
1.44	0.1	-0.000110283	5076.29
1.45	0.1	-0.000112409	5181.19
1.46	0.1	-0.000114174	5267.26
1.47	0.1	-0.000115692	5340.52
1.48	0.1	-0.000117044	5405.13
1.49	0.1	-0.000118285	5463.92
1.5	0.1	-0.000119451	5520
1.51	0.1	-0.000122446	5627.39
1.52	0.1	-0.00012507	5756.17
1.53	0.1	-0.000127372	5868.48
1.54	0.1	-0.00012945	5968.59
1.55	0.1	-0.000131294	6057.78
1.56	0.1	-0.000132965	6137.9
1.57	0.1	-0.000134533	6212.15
1.58	0.1	-0.000135968	6280.59
1.59	0.1	-0.000137297	6343.69
1.6	0.1	-0.000138547	6401.5
1.61	0.1	-0.00013595	6310.5
1.62	0.1	-0.000134985	6250.47
1.63	0.1	-0.000134957	6240.42
1.64	0.1	-0.000135484	6259.89
1.65	0.1	-0.000136328	6296.6
1.66	0.1	-0.000137349	6342.96
1.67	0.1	-0.000138465	6394.56
1.68	0.1	-0.000139628	6448.71
1.69	0.1	-0.000140804	6503.8
1.7	0.1	-0.000141975	6557.23
1.71	0.1	-0.000139515	6479.14
1.72	0.1	-0.000138374	6411.79
1.73	0.1	-0.000138041	6387.17
1.74	0.1	-0.000138224	6389.68
1.75	0.1	-0.000138751	6410.16
1.76	0.1	-0.000139512	6442.85
1.77	0.1	-0.000140434	6483.93
1.78	0.1	-0.000141467	6530.79
1.79	0.1	-0.000142576	6581.62
1.8	0.1	-0.000143734	6634.49
1.81	0.1	-0.000143843	6654.54
1.82	0.1	-0.000144259	6669.25
1.83	0.1	-0.000144891	6695.34
1.84	0.1	-0.000145676	6729.41
1.85	0.1	-0.000146576	6769.33
1.86	0.1	-0.000147558	6813.6
1.87	0.1	-0.000148603	6861.08
1.88	0.1	-0.000149693	6910.89
1.89	0.1	-0.000150816	6962.45
1.9	0.1	-0.000151963	7016.3
1.91	0.1	-0.000155257	7144.78
1.92	0.1	-0.000157875	7274.37
1.93	0.1	-0.00016003	7379.63
1.94	0.1	-0.000161869	7468.58
1.95	0.1	-0.000163505	7546.73
1.96	0.1	-0.000164983	7617.11
1.97	0.1	-0.00016635	7681.83
1.98	0.1	-0.000167639	7742.54
1.99	0.1	-0.000168866	7800.17
2	0.1	-0.000170046	7859.83
2.00952	0.1	-0.000179511	8186.59
2.01905	0.1	-0.000187421	8573.68
2.02857	0.1	-0.000192474	8844.79
2.0381	0.1	-0.000196498	9043.53
2.04762	0.1	-0.000199808	9205.55
2.05714	0.1	-0.000202618	9341.98
2.06667	0.1	-0.00020508	9460.55
2.07619	0.1	-0.000207293	9566.45
2.08571	0.1	-0.000209329	9663.25
2.09524	0.1	-0.000211233	9759.22
2.10476	0.1	-0.000224791	10239.8
2.11429	0.1	-0.000234817	10747
2.12381	0.1	-0.00024233	11123.3
2.13333	0.1	-0.000248183	11413.1
2.14286	0.1	-0.00025294	11646.1
2.15238	0.1	-0.000256982	11841.9
2.1619	0.1	-0.000260518	12012.1
2.17143	0.1	-0.00026369	12163.8
2.18095	0.1	-0.000266598	12302.2
2.19048	0.1	-0.000269309	12434.4
2.2	0.1	-0.000280116	12839.8
2.20952	0.1	-0.000287967	13234.5
2.21905	0.1	-0.000293968	13531.7
2.22857	0.1	-0.000298864	13770.3
2.2381	0.1	-0.000303037	13971.9
2.24762	0.1	-0.000306737	14149
2.25714	0.1	-0.000310111	14309.5
2.26667	0.1	-0.000313255	14458.1
2.27619	0.1	-0.000316225	14598.1
2.28571	0.1	-0.000319066	14738.8
2.29524	0.1	-0.000340431	15557.4
2.30476	0.1	-0.000353729	16246.9
2.31429	0.1	-0.000362269	16682.2
2.32381	0.1	-0.000368373	16985.7
2.33333	0.1	-0.000373222	17221.8
2.34286	0.1	-0.000377346	17420
2.35238	0.1	-0.000381043	17595.9
2.3619	0.1	-0.000384449	17757
2.37143	0.1	-0.000387654	17908
2.38095	0.1	-0.000390717	18059.4
2.39048	0.1	-0.000414585	18988.4
2.4	0.1	-0.000428118	19697.8
2.41	0.1	-0.000436611	20131.1
2.42	0.1	-0.000440852	20366.3
2.42947	0.1	-0.000446773	20623.5
2.43895	0.1	-0.000453691	20934.1
2.44842	0.1	-0.000456851	21117.9
2.45789	0.1	-0.000460135	21270.5
2.46737	0.1	-0.000463346	21420.9
2.47684	0.1	-0.000466474	21563.5
2.48632	0.1	-0.000456415	21169.1
2.49579	0.1	-0.000454909	21053.4
2.50526	0.1	-0.000456064	21093
2.51474	0.1	-0.000458201	21187.7
2.52421	0.1	-0.00046073	21304.1
2.53368	0.1	-0.000463403	21428.4
2.54316	0.1	-0.000466123	21555.3
2.55263	0.1	-0.000468835	21682.1
2.56211	0.1	-0.000471513	21807.5
2.57158	0.1	-0.000474147	21920.7
2.58105	0.1	-0.000452988	21145.9
2.59053	0.1	-0.000442734	20591.1
2.6	0.1	-0.000437413	20304.8
2.60952	0.1	-0.000434707	20156.8
2.61905	0.1	-0.000433319	20081
2.62857	0.1	-0.000433099	20059.6
2.6381	0.1	-0.000433469	20071.3
2.64762	0.1	-0.000434231	20103
2.65714	0.1	-0.000435259	20148.2
2.66667	0.1	-0.000436472	20194.3
2.67619	0.1	-0.000421656	19680.8
2.68571	0.1	-0.000412998	19225.9
2.69524	0.1	-0.000407558	18943.2
2.70476	0.1	-0.000404071	18761.5
2.71429	0.1	-0.000401825	18644
2.72381	0.1	-0.000400426	18569.5
2.73333	0.1	-0.000399629	18525.5
2.74286	0.1	-0.000399293	18504.4
2.75238	0.1	-0.000399277	18499.7
2.7619	0.1	-0.000399516	18522.5
2.77143	0.1	-0.000430343	19700.3
2.78095	0.1	-0.000451822	20789.9
2.79048	0.1	-0.00046477	21459.4
2.8	0.1	-0.000472397	21852
2.81	0.1	-0.000476973	22085.2
2.82	0.1	-0.000478002	22162.5
2.82947	0.1	-0.000480544	22262.1
2.83895	0.1	-0.000484291	22419.9
2.84842	0.1	-0.000484859	22474.5
2.85789	0.1	-0.000485498	22535.1
2.86737	0.1	-0.000558933	25255
2.87684	0.1	-0.000602229	27525
2.88632	0.1	-0.000626963	28818.7
2.89579	0.1	-0.000642847	29631.6
2.90526	0.1	-0.000653991	30193.5
2.91474	0.1	-0.00066236	30610.1
2.92421	0.1	-0.000668872	30932.4
2.93368	0.1	-0.00067417	31191.9
2.94316	0.1	-0.000678597	31407.7
2.95263	0.1	-0.00068232	31607.2
2.96211	0.1	-0.000727117	33255.6
2.97158	0.1	-0.00075365	34641.5
2.98105	0.1	-0.000771301	35542.5
2.99053	0.1	-0.000784207	36190.3
3	0.1	-0.000794189	36686.1
