# Time	field	min	max
0.00192308	T	293	293
0.00384615	T	293	1299.9
0.00414201	T	293	1550.18
0.0042596	T	293	2064.7
0.00431497	T	293	2483.35
0.00435173	T	293	2884.83
0.00438579	T	293	3068.26
0.00442445	T	292.926	3102.19
0.00447081	T	292.821	3117.03
0.0045264	T	292.858	3075.35
0.00459308	T	292.947	3015.48
0.00467302	T	292.976	2990.07
0.00476885	T	292.967	3030.01
0.00488365	T	292.96	3065.78
0.00501954	T	292.962	2998.46
0.00517737	T	292.965	2965
0.00535738	T	292.968	3032.74
0.0055603	T	292.971	2993.26
0.00578703	T	292.973	3035.42
0.00603968	T	292.975	3038.08
0.00631968	T	292.976	3063.89
0.00661683	T	292.978	3072.37
0.00692894	T	292.979	3144.35
0.00725772	T	292.981	3166.31
0.00759695	T	292.981	3199.57
0.00795031	T	292.982	3243.94
0.00831916	T	292.983	3265.79
0.00870156	T	292.984	3288.81
0.00909866	T	292.984	3323.41
0.00951602	T	292.985	3339.81
0.00995606	T	292.985	3349.51
0.0104272	T	292.985	3358.97
0.0109345	T	292.986	3360.42
0.0114847	T	292.986	3356.62
0.0120865	T	292.987	3357.94
0.0127402	T	292.988	3376.55
0.0134567	T	292.989	3385.2
0.0142512	T	292.991	3382.87
0.0151231	T	292.994	3372.64
0.0160919	T	292.995	3349.48
0.0171515	T	292.998	3321
0.0182842	T	292.999	3289.61
0.0195041	T	293	3249.82
0.02083	T	293	3200.03
0.022219	T	293	3151.74
0.0236812	T	293	3091.7
0.0252293	T	293	3032.64
0.0267775	T	293	2984.56
0.0284363	T	293	2910.28
0.030095	T	293	2862.95
0.0319046	T	293	2778.48
0.0337141	T	293	2727.29
0.0355236	T	293	2669.77
0.0373332	T	293	2620.67
0.0391427	T	293	2571.51
0.0406938	T	293	2567.67
0.0422448	T	293	2533.36
0.0437958	T	293	2498.03
0.0450367	T	293	2509.93
0.0462775	T	293	2493.87
0.0475183	T	293	2466.59
0.0487592	T	293	2442.38
0.05	T	293	2418.02
0.0513514	T	293	2376.6
0.0527027	T	293	2346.98
0.0541807	T	293	2305.74
0.0556588	T	293	2277.29
0.0570444	T	293	2266.45
0.0584763	T	293	2241.8
0.0598604	T	293	2229.36
0.0612445	T	293	2212.48
0.0626287	T	293	2196.97
0.0640128	T	293	2181.08
0.0653969	T	293	2166.97
0.066781	T	293	2152.8
0.0681652	T	293	2139.82
0.0695493	T	293	2127.19
0.0709334	T	293	2115.61
0.0723175	T	293	2104.28
0.0737017	T	293	2093.83
0.0750858	T	293	2083.81
0.0764699	T	293	2074.45
0.077854	T	293	2065.16
0.0792381	T	293	2055.74
0.0806223	T	293	2046.59
0.0820064	T	293	2037.83
0.0833905	T	293	2029.65
0.0847746	T	293	2021.86
0.0861588	T	293	2014.3
0.0875429	T	293	2007.46
0.088927	T	293	2001.68
0.0903111	T	293	1996.23
0.0916953	T	293	1991.08
0.0930794	T	293	1986.26
0.0944635	T	293	1981.74
0.0958476	T	293	1977.45
0.0972318	T	293	1973.23
0.0986159	T	293	1969.23
0.1	T	293	1965.45
0.101515	T	293	1947.19
0.10303	T	293	1940.66
0.104596	T	293	1931.02
0.106109	T	293	1932.16
0.107623	T	293	1929.93
0.109136	T	293	1927.38
0.11065	T	293	1924.2
0.112163	T	293	1921.17
0.113677	T	293	1918.13
0.11519	T	293	1915.67
0.116704	T	293	1913.34
0.118217	T	293	1911.08
0.119731	T	293	1908.92
0.121244	T	293	1906.95
0.122758	T	293	1905.11
0.124271	T	293	1904.16
0.125785	T	293	1903.56
0.127298	T	293	1903.08
0.128811	T	293	1902.71
0.130325	T	293	1902.44
0.131838	T	293	1902.19
0.133352	T	293	1901.9
0.134865	T	293	1901.68
0.136379	T	293	1901.54
0.137892	T	293	1901.47
0.139406	T	293	1901.47
0.140919	T	293	1901.54
0.142433	T	293	1901.68
0.143946	T	293	1901.87
0.14546	T	293	1902.11
0.146973	T	293	1902.4
0.148487	T	293	1902.75
0.15	T	293	1903.14
0.151613	T	293	1892.64
0.153226	T	293	1890.67
0.154896	T	293	1883.61
0.156507	T	293	1888.63
0.158118	T	293	1889.16
0.159729	T	293	1889.78
0.16134	T	293	1890.15
0.162951	T	293	1890.72
0.164561	T	293	1891.06
0.166172	T	293	1891.48
0.167783	T	293	1891.95
0.169394	T	293	1892.48
0.171005	T	293	1892.98
0.172616	T	293	1893.53
0.174226	T	293	1894.1
0.175837	T	293	1894.67
0.177448	T	293	1895.24
0.179059	T	293	1896.15
0.18067	T	293	1896.94
0.182281	T	293	1897.58
0.183892	T	293	1898.15
0.185502	T	293	1898.7
0.187113	T	293	1899.24
0.188724	T	293	1899.79
0.190335	T	293	1900.34
0.191946	T	293	1900.9
0.193557	T	293	1901.44
0.195167	T	293	1901.98
0.196778	T	293	1902.52
0.198389	T	293	1903.05
0.2	T	293	1903.56
0.201613	T	293	1903.83
0.203226	T	293	1904.3
0.204839	T	293	1904.78
0.206452	T	293	1905.26
0.208065	T	293	1905.73
0.209677	T	293	1906.2
0.21129	T	293	1906.66
0.212903	T	293	1907.1
0.214516	T	293	1907.55
0.216129	T	293	1907.98
0.217742	T	293	1908.4
0.219355	T	293	1908.81
0.220968	T	293	1909.2
0.222581	T	293	1909.59
0.224194	T	293	1909.96
0.225806	T	293	1910.32
0.227419	T	293	1910.68
0.229032	T	293	1911.02
0.230645	T	293	1911.35
0.232258	T	293	1911.67
0.233871	T	293	1911.98
0.235484	T	293	1912.28
0.237097	T	293	1912.58
0.23871	T	293	1912.86
0.240323	T	293	1913.13
0.241935	T	293	1913.39
0.243548	T	293	1913.64
0.245161	T	293	1913.88
0.246774	T	293	1914.12
0.248387	T	293	1914.34
0.25	T	293	1914.56
0.251613	T	293	1914.77
0.253226	T	293	1914.97
0.254839	T	293	1915.16
0.256452	T	293	1915.35
0.258065	T	293	1915.53
0.259677	T	293	1915.7
0.26129	T	293	1915.87
0.262903	T	293	1916.03
0.264516	T	293	1916.18
0.266129	T	293	1916.33
0.267742	T	293	1916.48
0.269355	T	293	1916.62
0.270968	T	293	1916.75
0.272581	T	293	1916.88
0.274194	T	293	1917
0.275806	T	293	1917.12
0.277419	T	293	1917.23
0.279032	T	293	1917.34
0.280645	T	293	1917.45
0.282258	T	293	1917.55
0.283871	T	293	1917.65
0.285484	T	293	1917.74
0.287097	T	293	1917.83
0.28871	T	293	1917.91
0.290323	T	293	1918
0.291935	T	293	1918.08
0.293548	T	293	1918.15
0.295161	T	293	1918.23
0.296774	T	293	1918.3
0.298387	T	293	1918.36
0.3	T	293	1918.43
